TITLE = Tecplot_Meshes
VARIABLES = X, Y, Z
ZONE N=8, E=1, F=FEPOINT, ET=BRICK
0  0  0
1  0  0
1  1  0
0  1  0
0  0  1
1  0  1
1  1  1
0  1  1

1  2  3  4  5  6  7  8
